 Gaussian 16, Revision A.03,
 Gaussian 16:  EM64M-G16RevA.03 25-Dec-2016

 --------------------------------------------
 # opt=(maxcycles=160) M062X/6-31G(d) emp=GD3
 --------------------------------------------

 ----------------------------
 Generated by prepare_file.py
 ----------------------------
 Symbolic Z-matrix:
 Charge =  0 Multiplicity = 1

 SCF Done:  E(RM062X) =  -197.621841280     A.U. after   12 cycles
 SCF Done:  E(RM062X) =  -197.641201826     A.U. after   11 cycles
 SCF Done:  E(RM062X) =  -197.644482755     A.U. after   11 cycles
 SCF Done:  E(RM062X) =  -197.647881641     A.U. after   12 cycles
 SCF Done:  E(RM062X) =  -197.649101710     A.U. after   11 cycles
 SCF Done:  E(RM062X) =  -197.649568549     A.U. after   11 cycles
 SCF Done:  E(RM062X) =  -197.649630476     A.U. after   10 cycles
 SCF Done:  E(RM062X) =  -197.649641695     A.U. after    9 cycles
 SCF Done:  E(RM062X) =  -197.649642504     A.U. after    7 cycles
 SCF Done:  E(RM062X) =  -197.649642549     A.U. after    7 cycles
 SCF Done:  E(RM062X) =  -197.649642586     A.U. after    6 cycles
 Optimization completed.
    -- Stationary point found.

                         Standard orientation:
 ---------------------------------------------------------------------
 Center     Atomic      Atomic             Coordinates (Angstroms)
 Number     Number       Type             X           Y           Z
 ---------------------------------------------------------------------
      1          6           0       -2.425800    0.166352   -0.107365
      2          6           0       -0.971157    0.376715    0.306155
      3          6           0       -0.049743   -0.713690   -0.240702
      4          6           0        1.397070   -0.611986    0.247940
      5          6           0        2.092112    0.683726   -0.168261
      6          1           0       -3.074226    0.957140    0.280660
      7          1           0       -2.522611    0.158001   -1.198357
      8          1           0       -2.803221   -0.791807    0.265326
      9          1           0        3.148096    0.675439    0.116860
     10          1           0       -0.895592    0.396005    1.401783
     11          1           0       -0.633478    1.359330   -0.044074
     12          1           0       -0.065359   -0.678906   -1.339436
     13          1           0       -0.456632   -1.693865    0.041352
     14          1           0        1.964336   -1.466182   -0.139977
     15          1           0        1.414349   -0.701430    1.342000
     16          1           0        1.630721    1.557598    0.301364
     17          1           0        2.038724    0.821972   -1.254096
 ---------------------------------------------------------------------

 The electronic state is 1-A.
 Alpha  occ. eigenvalues --  -10.53450 -10.53399 -10.53247 -10.52791 -10.52763
 Alpha  occ. eigenvalues --   -0.89803  -0.83964  -0.76095  -0.69003  -0.64014
 Alpha  occ. eigenvalues --   -0.53522  -0.51072  -0.49691  -0.47334  -0.44477
 Alpha  occ. eigenvalues --   -0.42961  -0.41507  -0.39737  -0.37550  -0.37416
 Alpha  occ. eigenvalues --   -0.36510
 Alpha virt. eigenvalues --    0.13228   0.15992   0.17199   0.17717   0.20805
 Alpha virt. eigenvalues --    0.21534   0.21651   0.22953   0.23455   0.23663
 Alpha virt. eigenvalues --    0.24851   0.26245   0.28980   0.29778   0.31109

 Mulliken charges:
               1
     1  C   -0.478323
     2  C   -0.292201
     3  C   -0.280850
     4  C   -0.291822
     5  C   -0.482701
     6  H    0.158922
     7  H    0.155447
     8  H    0.155117
     9  H    0.159921
    10  H    0.146367
    11  H    0.151509
    12  H    0.141716
    13  H    0.145020
    14  H    0.150998
    15  H    0.147125
    16  H    0.159472
    17  H    0.154283
 Sum of Mulliken charges =  -0.00000

 Dipole moment (field-independent basis, Debye):
    X=              0.0312    Y=             -0.0128    Z=              0.0261  Tot=              0.0427
 Quadrupole moment (field-independent basis, Debye-Ang):
   XX=            -35.3131   YY=            -34.9461   ZZ=            -34.6499
   XY=             -0.2150   XZ=             -0.1317   YZ=             -0.0537

 Normal termination of Gaussian 16 at Sat Sep 22 01:23:12 2018.
