 Gaussian 16, Revision A.03,
 Gaussian 16:  EM64M-G16RevA.03 25-Dec-2016

 --------------------------------------------
 # opt=(maxcycles=160) M062X/6-31G(d) emp=GD3
 --------------------------------------------

 ----------------------------
 Generated by prepare_file.py
 ----------------------------
 Symbolic Z-matrix:
 Charge =  0 Multiplicity = 1

 SCF Done:  E(RM062X) =  -197.622886285     A.U. after   12 cycles
 SCF Done:  E(RM062X) =  -197.641759599     A.U. after   11 cycles
 SCF Done:  E(RM062X) =  -197.644608317     A.U. after   11 cycles
 SCF Done:  E(RM062X) =  -197.647773765     A.U. after   11 cycles
 SCF Done:  E(RM062X) =  -197.649252096     A.U. after   11 cycles
 SCF Done:  E(RM062X) =  -197.649630347     A.U. after   10 cycles
 SCF Done:  E(RM062X) =  -197.649641866     A.U. after    9 cycles
 SCF Done:  E(RM062X) =  -197.649642399     A.U. after    7 cycles
 SCF Done:  E(RM062X) =  -197.649642583     A.U. after    6 cycles
 Optimization completed.
    -- Stationary point found.

                         Standard orientation:
 ---------------------------------------------------------------------
 Center     Atomic      Atomic             Coordinates (Angstroms)
 Number     Number       Type             X           Y           Z
 ---------------------------------------------------------------------
      1          6           0       -2.092097   -0.683724   -0.168208
      2          6           0       -1.397101    0.612024    0.247946
      3          6           0        0.049746    0.713737   -0.240670
      4          6           0        0.971108   -0.376896    0.305863
      5          6           0        2.425857   -0.166265   -0.107201
      6          1           0       -3.148143   -0.675364    0.116697
      7          1           0       -2.038480   -0.822166   -1.254007
      8          1           0       -1.630801   -1.557513    0.301679
      9          1           0        3.074245   -0.957221    0.280558
     10          1           0       -1.414417    0.701444    1.342005
     11          1           0       -1.964385    1.466211   -0.139973
     12          1           0        0.456665    1.693830    0.041625
     13          1           0        0.065345    0.679232   -1.339410
     14          1           0        0.633546   -1.359359   -0.044911
     15          1           0        0.895329   -0.396730    1.401467
     16          1           0        2.803128    0.791731    0.266064
     17          1           0        2.522889   -0.157349   -1.198168
 ---------------------------------------------------------------------

 The electronic state is 1-A.
 Alpha  occ. eigenvalues --  -10.53450 -10.53399 -10.53247 -10.52792 -10.52763
 Alpha  occ. eigenvalues --   -0.89803  -0.83964  -0.76095  -0.69004  -0.64014
 Alpha  occ. eigenvalues --   -0.53522  -0.51072  -0.49691  -0.47334  -0.44477
 Alpha  occ. eigenvalues --   -0.42961  -0.41507  -0.39737  -0.37549  -0.37416
 Alpha  occ. eigenvalues --   -0.36510
 Alpha virt. eigenvalues --    0.13227   0.15992   0.17200   0.17718   0.20804
 Alpha virt. eigenvalues --    0.21533   0.21652   0.22954   0.23454   0.23662
 Alpha virt. eigenvalues --    0.24849   0.26244   0.28978   0.29778   0.31109

 Mulliken charges:
               1
     1  C   -0.482697
     2  C   -0.291824
     3  C   -0.280855
     4  C   -0.292203
     5  C   -0.478323
     6  H    0.159919
     7  H    0.154280
     8  H    0.159470
     9  H    0.158923
    10  H    0.147127
    11  H    0.150998
    12  H    0.145021
    13  H    0.141721
    14  H    0.151513
    15  H    0.146364
    16  H    0.155119
    17  H    0.155447
 Sum of Mulliken charges =  -0.00000

 Dipole moment (field-independent basis, Debye):
    X=             -0.0312    Y=              0.0128    Z=              0.0261  Tot=              0.0426
 Quadrupole moment (field-independent basis, Debye-Ang):
   XX=            -35.3130   YY=            -34.9463   ZZ=            -34.6498
   XY=             -0.2152   XZ=              0.1316   YZ=              0.0537

 Normal termination of Gaussian 16 at Sat Sep 22 00:25:54 2018.
