 Gaussian 16, Revision A.03,
 Gaussian 16:  EM64M-G16RevA.03 25-Dec-2016

 --------------------------------------------
 # opt=(maxcycles=160) M062X/6-31G(d) emp=GD3
 --------------------------------------------

 ----------------------------
 Generated by prepare_file.py
 ----------------------------
 Symbolic Z-matrix:
 Charge =  0 Multiplicity = 1

 SCF Done:  E(RM062X) =  -197.618039635     A.U. after   12 cycles
 SCF Done:  E(RM062X) =  -197.637980056     A.U. after   11 cycles
 SCF Done:  E(RM062X) =  -197.642674622     A.U. after   11 cycles
 SCF Done:  E(RM062X) =  -197.648255027     A.U. after   12 cycles
 SCF Done:  E(RM062X) =  -197.650011473     A.U. after   11 cycles
 SCF Done:  E(RM062X) =  -197.650393986     A.U. after   10 cycles
 SCF Done:  E(RM062X) =  -197.650407142     A.U. after    9 cycles
 SCF Done:  E(RM062X) =  -197.650407959     A.U. after    7 cycles
 SCF Done:  E(RM062X) =  -197.650408009     A.U. after    6 cycles
 Optimization completed.
    -- Stationary point found.

                         Standard orientation:
 ---------------------------------------------------------------------
 Center     Atomic      Atomic             Coordinates (Angstroms)
 Number     Number       Type             X           Y           Z
 ---------------------------------------------------------------------
      1          6           0        2.541451   -0.326675   -0.000016
      2          6           0        1.275553    0.526502   -0.000057
      3          6           0       -0.000006   -0.313512    0.000088
      4          6           0       -1.275567    0.526528    0.000063
      5          6           0       -2.541434   -0.326688   -0.000070
      6          1           0        3.444317    0.290734   -0.000151
      7          1           0        2.576142   -0.972589    0.883746
      8          1           0        2.576038   -0.972847   -0.883594
      9          1           0       -3.444344    0.290659    0.000069
     10          1           0        1.273016    1.185187   -0.878165
     11          1           0        1.273088    1.185399    0.877890
     12          1           0        0.000008   -0.974243    0.878730
     13          1           0       -0.000032   -0.974407   -0.878430
     14          1           0       -1.273055    1.185381   -0.877923
     15          1           0       -1.273126    1.185268    0.878130
     16          1           0       -2.575996   -0.972892    0.883497
     17          1           0       -2.576041   -0.972581   -0.883849
 ---------------------------------------------------------------------

 The electronic state is 1-A.
 Alpha  occ. eigenvalues --  -10.53436 -10.53434 -10.53238 -10.52792 -10.52792
 Alpha  occ. eigenvalues --   -0.89778  -0.84246  -0.76109  -0.67783  -0.65222
 Alpha  occ. eigenvalues --   -0.54351  -0.50153  -0.49594  -0.46296  -0.45509
 Alpha  occ. eigenvalues --   -0.43621  -0.40934  -0.39114  -0.38104  -0.37586
 Alpha  occ. eigenvalues --   -0.36646
 Alpha virt. eigenvalues --    0.13412   0.15421   0.17161   0.18022   0.20001
 Alpha virt. eigenvalues --    0.22227   0.22234   0.22303   0.24212   0.24529
 Alpha virt. eigenvalues --    0.24834   0.25314   0.27191   0.29814   0.32147

 Mulliken charges:
               1
     1  C   -0.478904
     2  C   -0.289734
     3  C   -0.276879
     4  C   -0.289738
     5  C   -0.478900
     6  H    0.159114
     7  H    0.155384
     8  H    0.155384
     9  H    0.159114
    10  H    0.147642
    11  H    0.147642
    12  H    0.141914
    13  H    0.141911
    14  H    0.147642
    15  H    0.147644
    16  H    0.155379
    17  H    0.155385
 Sum of Mulliken charges =  -0.00000

 Dipole moment (field-independent basis, Debye):
    X=              0.0000    Y=              0.0557    Z=              0.0000  Tot=              0.0557
 Quadrupole moment (field-independent basis, Debye-Ang):
   XX=            -35.4894   YY=            -35.1751   ZZ=            -34.3542
   XY=             -0.0001   XZ=             -0.0000   YZ=              0.0001

 Normal termination of Gaussian 16 at Sat Sep 22 00:29:58 2018.
