 Gaussian 16, Revision A.03,
 Gaussian 16:  EM64M-G16RevA.03 25-Dec-2016

 --------------------------------------------
 # opt=(maxcycles=160) M062X/6-31G(d) emp=GD3
 --------------------------------------------

 ----------------------------
 Generated by prepare_file.py
 ----------------------------
 Symbolic Z-matrix:
 Charge =  0 Multiplicity = 1

 SCF Done:  E(RM062X) =  -197.596178993     A.U. after   12 cycles
 SCF Done:  E(RM062X) =  -197.629604339     A.U. after   13 cycles
 SCF Done:  E(RM062X) =  -197.640508101     A.U. after   11 cycles
 SCF Done:  E(RM062X) =  -197.642787816     A.U. after   11 cycles
 SCF Done:  E(RM062X) =  -197.643977148     A.U. after   11 cycles
 SCF Done:  E(RM062X) =  -197.645130734     A.U. after   10 cycles
 SCF Done:  E(RM062X) =  -197.644856952     A.U. after   12 cycles
 SCF Done:  E(RM062X) =  -197.646312019     A.U. after   10 cycles
 SCF Done:  E(RM062X) =  -197.646416353     A.U. after   10 cycles
 SCF Done:  E(RM062X) =  -197.646462641     A.U. after    9 cycles
 SCF Done:  E(RM062X) =  -197.646477506     A.U. after    9 cycles
 SCF Done:  E(RM062X) =  -197.646489716     A.U. after    9 cycles
 SCF Done:  E(RM062X) =  -197.646495037     A.U. after    9 cycles
 SCF Done:  E(RM062X) =  -197.646496309     A.U. after    7 cycles
 SCF Done:  E(RM062X) =  -197.646496427     A.U. after    6 cycles
 Optimization completed.
    -- Stationary point found.

                         Standard orientation:
 ---------------------------------------------------------------------
 Center     Atomic      Atomic             Coordinates (Angstroms)
 Number     Number       Type             X           Y           Z
 ---------------------------------------------------------------------
      1          6           0        1.820123    0.754241   -0.173504
      2          6           0        1.148826   -0.470779    0.449544
      3          6           0       -0.035884   -1.014564   -0.369187
      4          6           0       -1.406955   -0.499621    0.080590
      5          6           0       -1.558633    1.019430    0.031799
      6          1           0        2.641608    1.118511    0.450968
      7          1           0        2.233262    0.503993   -1.156460
      8          1           0        1.115093    1.578258   -0.314741
      9          1           0       -2.578534    1.320937    0.288433
     10          1           0        0.807683   -0.232088    1.466116
     11          1           0        1.905095   -1.255510    0.563393
     12          1           0       -0.050373   -2.109005   -0.311383
     13          1           0        0.114654   -0.767370   -1.429520
     14          1           0       -1.595292   -0.846732    1.104976
     15          1           0       -2.179925   -0.959960   -0.546391
     16          1           0       -1.335560    1.405331   -0.969305
     17          1           0       -0.882570    1.511394    0.738463
 ---------------------------------------------------------------------

 The electronic state is 1-A.
 Alpha  occ. eigenvalues --  -10.53481 -10.53453 -10.53249 -10.52816 -10.52694
 Alpha  occ. eigenvalues --   -0.89702  -0.83590  -0.76626  -0.68806  -0.63886
 Alpha  occ. eigenvalues --   -0.53398  -0.51516  -0.49532  -0.46397  -0.45097
 Alpha  occ. eigenvalues --   -0.42997  -0.41567  -0.40175  -0.37573  -0.36882
 Alpha  occ. eigenvalues --   -0.36203
 Alpha virt. eigenvalues --    0.12936   0.16607   0.17327   0.17722   0.19197
 Alpha virt. eigenvalues --    0.20938   0.22171   0.22330   0.23612   0.24609
 Alpha virt. eigenvalues --    0.24802   0.26255   0.28022   0.29250   0.32837

 Mulliken charges:
               1
     1  C   -0.481670
     2  C   -0.296890
     3  C   -0.289636
     4  C   -0.289821
     5  C   -0.480899
     6  H    0.157642
     7  H    0.156048
     8  H    0.159218
     9  H    0.160096
    10  H    0.147562
    11  H    0.153489
    12  H    0.150785
    13  H    0.143749
    14  H    0.147820
    15  H    0.150109
    16  H    0.154230
    17  H    0.158167
 Sum of Mulliken charges =  -0.00000

 Dipole moment (field-independent basis, Debye):
    X=             -0.0332    Y=             -0.0989    Z=              0.0272  Tot=              0.1078
 Quadrupole moment (field-independent basis, Debye-Ang):
   XX=            -34.8521   YY=            -35.1574   ZZ=            -34.7408
   XY=             -0.1519   XZ=              0.0758   YZ=              0.0857

 Normal termination of Gaussian 16 at Fri Sep 21 23:27:25 2018.
