 Gaussian 16, Revision A.03,
 Gaussian 16:  EM64M-G16RevA.03 25-Dec-2016

 --------------------------------------------
 # opt=(maxcycles=160) M062X/6-31G(d) emp=GD3
 --------------------------------------------

 ----------------------------
 Generated by prepare_file.py
 ----------------------------
 Symbolic Z-matrix:
 Charge =  0 Multiplicity = 1

 SCF Done:  E(RM062X) =  -197.593643599     A.U. after   12 cycles
 SCF Done:  E(RM062X) =  -197.625362276     A.U. after   12 cycles
 SCF Done:  E(RM062X) =  -197.636046980     A.U. after   11 cycles
 SCF Done:  E(RM062X) =  -197.637410357     A.U. after   11 cycles
 SCF Done:  E(RM062X) =  -197.638525294     A.U. after   11 cycles
 SCF Done:  E(RM062X) =  -197.638320798     A.U. after   10 cycles
 SCF Done:  E(RM062X) =  -197.640290980     A.U. after   11 cycles
 SCF Done:  E(RM062X) =  -197.641639929     A.U. after   12 cycles
 SCF Done:  E(RM062X) =  -197.642437017     A.U. after   11 cycles
 SCF Done:  E(RM062X) =  -197.626128537     A.U. after   12 cycles
 SCF Done:  E(RM062X) =  -197.646081216     A.U. after   10 cycles
 SCF Done:  E(RM062X) =  -197.646663341     A.U. after   10 cycles
 SCF Done:  E(RM062X) =  -197.646989029     A.U. after   10 cycles
 SCF Done:  E(RM062X) =  -197.647896105     A.U. after   10 cycles
 SCF Done:  E(RM062X) =  -197.648937545     A.U. after   10 cycles
 SCF Done:  E(RM062X) =  -197.649437601     A.U. after   10 cycles
 SCF Done:  E(RM062X) =  -197.649565802     A.U. after   10 cycles
 SCF Done:  E(RM062X) =  -197.649580842     A.U. after    9 cycles
 SCF Done:  E(RM062X) =  -197.649582665     A.U. after    7 cycles
 SCF Done:  E(RM062X) =  -197.649582764     A.U. after    6 cycles
 Optimization completed.
    -- Stationary point found.

                         Standard orientation:
 ---------------------------------------------------------------------
 Center     Atomic      Atomic             Coordinates (Angstroms)
 Number     Number       Type             X           Y           Z
 ---------------------------------------------------------------------
      1          6           0        1.779326   -0.715449   -0.355389
      2          6           0        1.127537    0.257614    0.625445
      3          6           0        0.000043    1.085350    0.000013
      4          6           0       -1.127526    0.257715   -0.625353
      5          6           0       -1.779376   -0.715455    0.355327
      6          1           0        2.642614   -1.213758    0.094928
      7          1           0        1.078430   -1.493661   -0.674874
      8          1           0        2.124124   -0.191360   -1.253951
      9          1           0       -2.642919   -1.213319   -0.094986
     10          1           0        1.888358    0.942879    1.016988
     11          1           0        0.744938   -0.296210    1.491524
     12          1           0        0.426964    1.742642   -0.768907
     13          1           0       -0.426854    1.742714    0.768876
     14          1           0       -0.744908   -0.296059   -1.491468
     15          1           0       -1.888274    0.943051   -1.016908
     16          1           0       -2.123831   -0.191572    1.254136
     17          1           0       -1.078665   -1.493998    0.674382
 ---------------------------------------------------------------------

 The electronic state is 1-A.
 Alpha  occ. eigenvalues --  -10.53387 -10.53384 -10.53246 -10.52803 -10.52803
 Alpha  occ. eigenvalues --   -0.89885  -0.83501  -0.76388  -0.69816  -0.62667
 Alpha  occ. eigenvalues --   -0.53487  -0.52981  -0.47811  -0.46578  -0.46230
 Alpha  occ. eigenvalues --   -0.42466  -0.41225  -0.40517  -0.37333  -0.36825
 Alpha  occ. eigenvalues --   -0.36696
 Alpha virt. eigenvalues --    0.12219   0.16808   0.17626   0.18478   0.19583
 Alpha virt. eigenvalues --    0.21416   0.21617   0.22897   0.23689   0.25255
 Alpha virt. eigenvalues --    0.25999   0.26830   0.27607   0.28395   0.29355

 Mulliken charges:
               1
     1  C   -0.481427
     2  C   -0.295280
     3  C   -0.286344
     4  C   -0.295283
     5  C   -0.481425
     6  H    0.160416
     7  H    0.156898
     8  H    0.154976
     9  H    0.160419
    10  H    0.151936
    11  H    0.150178
    12  H    0.145478
    13  H    0.145477
    14  H    0.150169
    15  H    0.151936
    16  H    0.154976
    17  H    0.156901
 Sum of Mulliken charges =   0.00000

 Dipole moment (field-independent basis, Debye):
    X=             -0.0000    Y=              0.0398    Z=             -0.0000  Tot=              0.0398
 Quadrupole moment (field-independent basis, Debye-Ang):
   XX=            -34.7954   YY=            -34.9724   ZZ=            -34.9785
   XY=             -0.0000   XZ=              0.1288   YZ=             -0.0002

 Normal termination of Gaussian 16 at Fri Sep 21 23:52:52 2018.
