 Gaussian 16, Revision A.03,
 Gaussian 16:  EM64M-G16RevA.03 25-Dec-2016

 --------------------------------------------
 # opt=(maxcycles=160) M062X/6-31G(d) emp=GD3
 --------------------------------------------

 ----------------------------
 Generated by prepare_file.py
 ----------------------------
 Symbolic Z-matrix:
 Charge =  0 Multiplicity = 1

 SCF Done:  E(RM062X) =  -197.581012491     A.U. after   12 cycles
 SCF Done:  E(RM062X) =  -197.623403343     A.U. after   13 cycles
 SCF Done:  E(RM062X) =  -197.635194177     A.U. after   11 cycles
 SCF Done:  E(RM062X) =  -197.636958673     A.U. after   11 cycles
 SCF Done:  E(RM062X) =  -197.639597417     A.U. after   11 cycles
 SCF Done:  E(RM062X) =  -197.643458662     A.U. after   11 cycles
 SCF Done:  E(RM062X) =  -197.648333520     A.U. after   11 cycles
 SCF Done:  E(RM062X) =  -197.648706506     A.U. after   11 cycles
 SCF Done:  E(RM062X) =  -197.649484357     A.U. after   10 cycles
 SCF Done:  E(RM062X) =  -197.649512279     A.U. after    9 cycles
 SCF Done:  E(RM062X) =  -197.649533561     A.U. after    7 cycles
 SCF Done:  E(RM062X) =  -197.649552177     A.U. after    9 cycles
 SCF Done:  E(RM062X) =  -197.649573739     A.U. after    9 cycles
 SCF Done:  E(RM062X) =  -197.649579543     A.U. after    7 cycles
 SCF Done:  E(RM062X) =  -197.649582641     A.U. after    7 cycles
 SCF Done:  E(RM062X) =  -197.649582751     A.U. after    6 cycles
 Optimization completed.
    -- Stationary point found.

                         Standard orientation:
 ---------------------------------------------------------------------
 Center     Atomic      Atomic             Coordinates (Angstroms)
 Number     Number       Type             X           Y           Z
 ---------------------------------------------------------------------
      1          6           0        1.779833   -0.715209    0.355274
      2          6           0        1.127474    0.257446   -0.625566
      3          6           0        0.000057    1.085122    0.000020
      4          6           0       -1.127424    0.257447    0.625551
      5          6           0       -1.779936   -0.715117   -0.355292
      6          1           0        2.643417   -1.213008   -0.095047
      7          1           0        2.124350   -0.190895    1.253815
      8          1           0        1.079480   -1.493867    0.674839
      9          1           0       -2.643374   -1.213060    0.095134
     10          1           0        0.744726   -0.296618   -1.491418
     11          1           0        1.888082    0.942758   -1.017489
     12          1           0       -0.427027    1.742491   -0.768755
     13          1           0        0.427169    1.742392    0.768835
     14          1           0       -1.887902    0.942790    1.017638
     15          1           0       -0.744645   -0.296738    1.491334
     16          1           0       -1.079592   -1.493664   -0.675121
     17          1           0       -2.124711   -0.190716   -1.253687
 ---------------------------------------------------------------------

 The electronic state is 1-A.
 Alpha  occ. eigenvalues --  -10.53387 -10.53384 -10.53247 -10.52803 -10.52803
 Alpha  occ. eigenvalues --   -0.89884  -0.83502  -0.76387  -0.69816  -0.62667
 Alpha  occ. eigenvalues --   -0.53486  -0.52981  -0.47810  -0.46580  -0.46230
 Alpha  occ. eigenvalues --   -0.42465  -0.41224  -0.40517  -0.37335  -0.36824
 Alpha  occ. eigenvalues --   -0.36696
 Alpha virt. eigenvalues --    0.12219   0.16808   0.17626   0.18477   0.19582
 Alpha virt. eigenvalues --    0.21416   0.21617   0.22896   0.23689   0.25254
 Alpha virt. eigenvalues --    0.25999   0.26828   0.27609   0.28398   0.29355

 Mulliken charges:
               1
     1  C   -0.481427
     2  C   -0.295273
     3  C   -0.286340
     4  C   -0.295276
     5  C   -0.481428
     6  H    0.160414
     7  H    0.154970
     8  H    0.156901
     9  H    0.160419
    10  H    0.150180
    11  H    0.151929
    12  H    0.145472
    13  H    0.145478
    14  H    0.151932
    15  H    0.150173
    16  H    0.156902
    17  H    0.154972
 Sum of Mulliken charges =  -0.00000

 Dipole moment (field-independent basis, Debye):
    X=              0.0000    Y=              0.0398    Z=              0.0000  Tot=              0.0398
 Quadrupole moment (field-independent basis, Debye-Ang):
   XX=            -34.7955   YY=            -34.9719   ZZ=            -34.9786
   XY=              0.0002   XZ=             -0.1289   YZ=              0.0002

 Normal termination of Gaussian 16 at Sat Sep 22 01:32:48 2018.
