 Gaussian 16, Revision A.03,
 Gaussian 16:  EM64M-G16RevA.03 25-Dec-2016

 --------------------------------------------
 # opt=(maxcycles=160) M062X/6-31G(d) emp=GD3
 --------------------------------------------

 ----------------------------
 Generated by prepare_file.py
 ----------------------------
 Symbolic Z-matrix:
 Charge =  0 Multiplicity = 1

 SCF Done:  E(RM062X) =  -197.622276747     A.U. after   12 cycles
 SCF Done:  E(RM062X) =  -197.641633808     A.U. after   11 cycles
 SCF Done:  E(RM062X) =  -197.645197007     A.U. after   11 cycles
 SCF Done:  E(RM062X) =  -197.648638606     A.U. after   11 cycles
 SCF Done:  E(RM062X) =  -197.649470848     A.U. after   11 cycles
 SCF Done:  E(RM062X) =  -197.649625446     A.U. after   10 cycles
 SCF Done:  E(RM062X) =  -197.649641444     A.U. after    9 cycles
 SCF Done:  E(RM062X) =  -197.649642372     A.U. after    7 cycles
 SCF Done:  E(RM062X) =  -197.649642545     A.U. after    6 cycles
 SCF Done:  E(RM062X) =  -197.649642585     A.U. after    6 cycles
 Optimization completed.
    -- Stationary point found.

                         Standard orientation:
 ---------------------------------------------------------------------
 Center     Atomic      Atomic             Coordinates (Angstroms)
 Number     Number       Type             X           Y           Z
 ---------------------------------------------------------------------
      1          6           0       -2.425796   -0.166336   -0.107288
      2          6           0       -0.971108   -0.376792    0.306015
      3          6           0       -0.049768    0.713737   -0.240673
      4          6           0        1.397070    0.612009    0.247922
      5          6           0        2.092085   -0.683740   -0.168228
      6          1           0       -3.074229   -0.957046    0.280888
      7          1           0       -2.803086    0.791883    0.265383
      8          1           0       -2.522768   -0.158052   -1.198267
      9          1           0        3.148135   -0.675342    0.116645
     10          1           0       -0.633458   -1.359334   -0.044460
     11          1           0       -0.895432   -0.396321    1.401634
     12          1           0       -0.456675    1.693858    0.041551
     13          1           0       -0.065423    0.679132   -1.339410
     14          1           0        1.414371    0.701511    1.341977
     15          1           0        1.964341    1.466177   -0.140048
     16          1           0        2.038458   -0.822165   -1.254028
     17          1           0        1.630869   -1.557567    0.301648
 ---------------------------------------------------------------------

 The electronic state is 1-A.
 Alpha  occ. eigenvalues --  -10.53450 -10.53398 -10.53247 -10.52791 -10.52763
 Alpha  occ. eigenvalues --   -0.89803  -0.83964  -0.76095  -0.69004  -0.64014
 Alpha  occ. eigenvalues --   -0.53522  -0.51072  -0.49691  -0.47334  -0.44477
 Alpha  occ. eigenvalues --   -0.42961  -0.41507  -0.39737  -0.37550  -0.37416
 Alpha  occ. eigenvalues --   -0.36510
 Alpha virt. eigenvalues --    0.13228   0.15992   0.17200   0.17717   0.20805
 Alpha virt. eigenvalues --    0.21533   0.21651   0.22954   0.23455   0.23663
 Alpha virt. eigenvalues --    0.24851   0.26244   0.28979   0.29779   0.31109

 Mulliken charges:
               1
     1  C   -0.478322
     2  C   -0.292197
     3  C   -0.280851
     4  C   -0.291821
     5  C   -0.482702
     6  H    0.158921
     7  H    0.155116
     8  H    0.155448
     9  H    0.159921
    10  H    0.151512
    11  H    0.146363
    12  H    0.145019
    13  H    0.141717
    14  H    0.147126
    15  H    0.150998
    16  H    0.154282
    17  H    0.159473
 Sum of Mulliken charges =  -0.00000

 Dipole moment (field-independent basis, Debye):
    X=              0.0313    Y=              0.0128    Z=              0.0261  Tot=              0.0427
 Quadrupole moment (field-independent basis, Debye-Ang):
   XX=            -35.3131   YY=            -34.9461   ZZ=            -34.6499
   XY=              0.2149   XZ=             -0.1317   YZ=              0.0537

 Normal termination of Gaussian 16 at Sat Sep 22 00:15:27 2018.
