 Gaussian 16, Revision A.03,
 Gaussian 16:  EM64M-G16RevA.03 25-Dec-2016

 --------------------------------------------
 # opt=(maxcycles=160) M062X/6-31G(d) emp=GD3
 --------------------------------------------

 ----------------------------
 Generated by prepare_file.py
 ----------------------------
 Symbolic Z-matrix:
 Charge =  0 Multiplicity = 1

 SCF Done:  E(RM062X) =  -197.613150156     A.U. after   12 cycles
 SCF Done:  E(RM062X) =  -197.635273646     A.U. after   12 cycles
 SCF Done:  E(RM062X) =  -197.642849078     A.U. after   11 cycles
 SCF Done:  E(RM062X) =  -197.644277169     A.U. after   10 cycles
 SCF Done:  E(RM062X) =  -197.644986873     A.U. after   10 cycles
 SCF Done:  E(RM062X) =  -197.645289167     A.U. after   10 cycles
 SCF Done:  E(RM062X) =  -197.645422484     A.U. after   10 cycles
 SCF Done:  E(RM062X) =  -197.645471607     A.U. after   10 cycles
 SCF Done:  E(RM062X) =  -197.645405737     A.U. after   11 cycles
 SCF Done:  E(RM062X) =  -197.645739871     A.U. after   11 cycles
 SCF Done:  E(RM062X) =  -197.645783656     A.U. after   11 cycles
 SCF Done:  E(RM062X) =  -197.646048807     A.U. after   11 cycles
 SCF Done:  E(RM062X) =  -197.646306512     A.U. after   10 cycles
 SCF Done:  E(RM062X) =  -197.646449749     A.U. after   11 cycles
 SCF Done:  E(RM062X) =  -197.646471934     A.U. after   10 cycles
 SCF Done:  E(RM062X) =  -197.646495155     A.U. after    9 cycles
 SCF Done:  E(RM062X) =  -197.646496209     A.U. after    7 cycles
 SCF Done:  E(RM062X) =  -197.646496417     A.U. after    6 cycles
 Optimization completed.
    -- Stationary point found.

                         Standard orientation:
 ---------------------------------------------------------------------
 Center     Atomic      Atomic             Coordinates (Angstroms)
 Number     Number       Type             X           Y           Z
 ---------------------------------------------------------------------
      1          6           0        1.558454    1.019452   -0.031899
      2          6           0        1.406949   -0.499620   -0.080295
      3          6           0        0.035769   -1.014619    0.369110
      4          6           0       -1.148608   -0.470577   -0.449913
      5          6           0       -1.820078    0.754056    0.173730
      6          1           0        2.578244    1.320974   -0.288995
      7          1           0        0.882058    1.511136   -0.738461
      8          1           0        1.335719    1.405598    0.969192
      9          1           0       -2.640924    1.119295   -0.451028
     10          1           0        2.179755   -0.959725    0.547069
     11          1           0        1.595650   -0.846944   -1.104550
     12          1           0       -0.115064   -0.767505    1.429420
     13          1           0        0.050301   -2.109063    0.311208
     14          1           0       -1.904820   -1.255249   -0.564587
     15          1           0       -0.806970   -0.231229   -1.466169
     16          1           0       -1.114790    1.577621    0.316398
     17          1           0       -2.234074    0.502933    1.156109
 ---------------------------------------------------------------------

 The electronic state is 1-A.
 Alpha  occ. eigenvalues --  -10.53481 -10.53453 -10.53249 -10.52817 -10.52694
 Alpha  occ. eigenvalues --   -0.89703  -0.83590  -0.76625  -0.68806  -0.63886
 Alpha  occ. eigenvalues --   -0.53399  -0.51517  -0.49532  -0.46395  -0.45097
 Alpha  occ. eigenvalues --   -0.42997  -0.41565  -0.40176  -0.37572  -0.36882
 Alpha  occ. eigenvalues --   -0.36203
 Alpha virt. eigenvalues --    0.12937   0.16607   0.17327   0.17720   0.19197
 Alpha virt. eigenvalues --    0.20937   0.22168   0.22331   0.23613   0.24612
 Alpha virt. eigenvalues --    0.24802   0.26253   0.28021   0.29253   0.32833

 Mulliken charges:
               1
     1  C   -0.480901
     2  C   -0.289825
     3  C   -0.289638
     4  C   -0.296899
     5  C   -0.481674
     6  H    0.160096
     7  H    0.158167
     8  H    0.154233
     9  H    0.157640
    10  H    0.150107
    11  H    0.147820
    12  H    0.143757
    13  H    0.150788
    14  H    0.153495
    15  H    0.147568
    16  H    0.159214
    17  H    0.156053
 Sum of Mulliken charges =  -0.00000

 Dipole moment (field-independent basis, Debye):
    X=              0.0333    Y=             -0.0989    Z=             -0.0272  Tot=              0.1078
 Quadrupole moment (field-independent basis, Debye-Ang):
   XX=            -34.8525   YY=            -35.1576   ZZ=            -34.7409
   XY=              0.1520   XZ=              0.0758   YZ=             -0.0856

 Normal termination of Gaussian 16 at Sat Sep 22 01:40:07 2018.
